<?xml version="1.0"?>
<VTKFile type="UnstructuredGrid" version="0.1" byte_order="LittleEndian">
  <UnstructuredGrid>
    <Piece NumberOfPoints="64" NumberOfCells="8">
      <Points>
        <DataArray type="Float32" NumberOfComponents="3" format="ascii">
          -1.0 -32.0 -30.0
          160.0 -32.0 -30.0
          160.0 32.0 -30.0
          -1.0 32.0 -30.0
          -1.0 -32.0 40.0
          160.0 -32.0 40.0
          160.0 32.0 40.0
          -1.0 32.0 40.0
          0.0 -32.0 0.0
          60.0 -32.0 0.0
          60.0 32.0 0.0
          0.0 32.0 0.0
          0.0 -32.0 10.0
          60.0 -32.0 10.0
          60.0 32.0 10.0
          0.0 32.0 10.0
          60.0 -32.0 -30.0
          160.0 -32.0 -30.0
          160.0 32.0 -30.0
          60.0 32.0 -30.0
          60.0 -32.0 40.0
          160.0 -32.0 40.0
          160.0 32.0 40.0
          60.0 32.0 40.0
          -1.0 -32.0 -1.0
          0.0 -32.0 -1.0
          0.0 32.0 -1.0
          -1.0 32.0 -1.0
          -1.0 -32.0 11.0
          0.0 -32.0 11.0
          0.0 32.0 11.0
          -1.0 32.0 11.0
          0.0 -32.0 -1.0
          40.0 -32.0 -1.0
          40.0 32.0 -1.0
          0.0 32.0 -1.0
          0.0 -32.0 0.0
          40.0 -32.0 0.0
          40.0 32.0 0.0
          0.0 32.0 0.0
          0.0 -32.0 10.0
          40.0 -32.0 10.0
          40.0 32.0 10.0
          0.0 32.0 10.0
          0.0 -32.0 11.0
          40.0 -32.0 11.0
          40.0 32.0 11.0
          0.0 32.0 11.0
          40.0 -32.0 -30.0
          60.0 -32.0 -30.0
          60.0 32.0 -30.0
          40.0 32.0 -30.0
          40.0 -32.0 0.0
          60.0 -32.0 0.0
          60.0 32.0 0.0
          40.0 32.0 0.0
          40.0 -32.0 10.0
          60.0 -32.0 10.0
          60.0 32.0 10.0
          40.0 32.0 10.0
          40.0 -32.0 40.0
          60.0 -32.0 40.0
          60.0 32.0 40.0
          40.0 32.0 40.0
        </DataArray>
      </Points>
      <Cells>
        <DataArray type="Int32" Name="connectivity" format="ascii">
          0 1 2 3 4 5 6 7
          8 9 10 11 12 13 14 15
          16 17 18 19 20 21 22 23
          24 25 26 27 28 29 30 31
          32 33 34 35 36 37 38 39
          40 41 42 43 44 45 46 47
          48 49 50 51 52 53 54 55
          56 57 58 59 60 61 62 63
        </DataArray>
        <DataArray type="Int32" Name="offsets" format="ascii">
          8
          16
          24
          32
          40
          48
          56
          64
        </DataArray>
        <DataArray type="UInt8" Name="types" format="ascii">
          12
          12
          12
          12
          12
          12
          12
          12
        </DataArray>
      </Cells>
      <CellData Scalars="material_id">
        <DataArray type="Int32" Name="material_id" format="ascii">
          0
          1
          1
          2
          2
          2
          2
          2
        </DataArray>
      </CellData>
      <FieldData>
        <DataArray type="String" Name="material_names" format="ascii">
          VACUUM
          SILICON
          OXIDE
        </DataArray>
      </FieldData>
    </Piece>
  </UnstructuredGrid>
</VTKFile>
