<?xml version="1.0"?>
<VTKFile type="RectilinearGrid" version="0.1" byte_order="LittleEndian">
  <RectilinearGrid WholeExtent="0 50 0 64 0 28">
    <Piece Extent="0 50 0 64 0 28">
      <PointData Scalars="potential">
        <DataArray type="Float32" Name="potential" format="ascii">
          0.00000000e+00
          0.00000000e+00
          0.00000000e+00
          0.00000000e+00
          0.00000000e+00
          0.00000000e+00
          0.00000000e+00
          0.00000000e+00
          0.00000000e+00
          0.00000000e+00
          0.00000000e+00
          0.00000000e+00
          0.00000000e+00
          0.00000000e+00
          0.00000000e+00
          0.00000000e+00
          0.00000000e+00
          0.00000000e+00
          0.00000000e+00
          0.00000000e+00
          0.00000000e+00
          0.00000000e+00
          0.00000000e+00
          0.00000000e+00
          0.00000000e+00
          0.00000000e+00
          0.00000000e+00
          0.00000000e+00
          0.00000000e+00
          0.00000000e+00
          0.00000000e+00
          0.00000000e+00
          0.00000000e+00
          0.00000000e+00
          0.00000000e+00
          0.00000000e+00
          0.00000000e+00
          0.00000000e+00
          0.00000000e+00
          2.67208000e-01
          2.66446000e-01
          2.63093000e-01
          2.58929000e-01
          2.53459000e-01
          2.44349000e-01
          2.36408000e-01
          2.22884000e-01
          1.78136000e-01
          1.24437000e-01
          8.39118000e-03
          -2.08521000e-02
          0.00000000e+00
          0.00000000e+00
          0.00000000e+00
          0.00000000e+00
          0.00000000e+00
          0.00000000e+00
          0.00000000e+00
          0.00000000e+00
          0.00000000e+00
          0.00000000e+00
          0.00000000e+00
          0.00000000e+00
          0.00000000e+00
          0.00000000e+00
          0.00000000e+00
          0.00000000e+00
          0.00000000e+00
          0.00000000e+00
          0.00000000e+00
          0.00000000e+00
          0.00000000e+00
          0.00000000e+00
          0.00000000e+00
          0.00000000e+00
          0.00000000e+00
          0.00000000e+00
          0.00000000e+00
          0.00000000e+00
          0.00000000e+00
          0.00000000e+00
          0.00000000e+00
          0.00000000e+00
          0.00000000e+00
          0.00000000e+00
          0.00000000e+00
          0.00000000e+00
          0.00000000e+00
          0.00000000e+00
          0.00000000e+00
          2.67255000e-01
          2.66493000e-01
          2.63137000e-01
          2.58969000e-01
          2.53495000e-01
          2.44377000e-01
          2.36432000e-01
          2.22901000e-01
          1.78144000e-01
          1.24440000e-01
          8.39159000e-03
          -2.08521000e-02
          0.00000000e+00
          0.00000000e+00
          0.00000000e+00
          0.00000000e+00
          0.00000000e+00
          0.00000000e+00
          0.00000000e+00
          0.00000000e+00
          0.00000000e+00
          0.00000000e+00
          0.00000000e+00
          0.00000000e+00
          0.00000000e+00
          0.00000000e+00
          0.00000000e+00
          0.00000000e+00
          0.00000000e+00
          0.00000000e+00
          0.00000000e+00
          0.00000000e+00
          0.00000000e+00
          0.00000000e+00
          0.00000000e+00
          0.00000000e+00
          0.00000000e+00
          0.00000000e+00
          0.00000000e+00
          0.00000000e+00
          0.00000000e+00
          0.00000000e+00
          0.00000000e+00
          0.00000000e+00
          0.00000000e+00
          0.00000000e+00
          0.00000000e+00
          0.00000000e+00
          0.00000000e+00
          0.00000000e+00
          0.00000000e+00
          2.67397000e-01
          2.66633000e-01
          2.63267000e-01
          2.59089000e-01
          2.53602000e-01
          2.44464000e-01
          2.36502000e-01
          2.22953000e-01
          1.78167000e-01
          1.24449000e-01
          8.39280000e-03
          -2.08521000e-02
          0.00000000e+00
          0.00000000e+00
          0.00000000e+00
          0.00000000e+00
          0.00000000e+00
          0.00000000e+00
          0.00000000e+00
          0.00000000e+00
          0.00000000e+00
          0.00000000e+00
          0.00000000e+00
          0.00000000e+00
          0.00000000e+00
          0.00000000e+00
          0.00000000e+00
          0.00000000e+00
          0.00000000e+00
          0.00000000e+00
          0.00000000e+00
          0.00000000e+00
          0.00000000e+00
          0.00000000e+00
          0.00000000e+00
          0.00000000e+00
          0.00000000e+00
          0.00000000e+00
          0.00000000e+00
          0.00000000e+00
          0.00000000e+00
          0.00000000e+00
          0.00000000e+00
          0.00000000e+00
          0.00000000e+00
          0.00000000e+00
          0.00000000e+00
          0.00000000e+00
          0.00000000e+00
          0.00000000e+00
          0.00000000e+00
          2.67633000e-01
          2.66865000e-01
          2.63485000e-01
          2.59289000e-01
          2.53780000e-01
          2.44608000e-01
          2.36619000e-01
          2.23038000e-01
          1.78205000e-01
          1.24463000e-01
          8.39481000e-03
          -2.08521000e-02
          0.00000000e+00
          0.00000000e+00
          0.00000000e+00
          0.00000000e+00
          0.00000000e+00
          0.00000000e+00
          0.00000000e+00
          0.00000000e+00
          0.00000000e+00
          0.00000000e+00
          0.00000000e+00
          0.00000000e+00
          0.00000000e+00
          0.00000000e+00
          0.00000000e+00
          0.00000000e+00
          0.00000000e+00
          0.00000000e+00
          0.00000000e+00
          0.00000000e+00
          0.00000000e+00
          0.00000000e+00
          0.00000000e+00
          0.00000000e+00
          0.00000000e+00
          0.00000000e+00
          0.00000000e+00
          0.00000000e+00
          0.00000000e+00
          0.00000000e+00
          0.00000000e+00
          0.00000000e+00
          0.00000000e+00
          0.00000000e+00
          0.00000000e+00
          0.00000000e+00
          0.00000000e+00
          0.00000000e+00
          0.00000000e+00
          2.67963000e-01
          2.67190000e-01
          2.63788000e-01
          2.59568000e-01
          2.54028000e-01
          2.44809000e-01
          2.36783000e-01
          2.23158000e-01
          1.78259000e-01
          1.24483000e-01
          8.39763000e-03
          -2.08521000e-02
          0.00000000e+00
          0.00000000e+00
          0.00000000e+00
          0.00000000e+00
          0.00000000e+00
          0.00000000e+00
          0.00000000e+00
          0.00000000e+00
          0.00000000e+00
          0.00000000e+00
          0.00000000e+00
          0.00000000e+00
          0.00000000e+00
          0.00000000e+00
          0.00000000e+00
          0.00000000e+00
          0.00000000e+00
          0.00000000e+00
          0.00000000e+00
          0.00000000e+00
          0.00000000e+00
          0.00000000e+00
          0.00000000e+00
          0.00000000e+00
          0.00000000e+00
          0.00000000e+00
          0.00000000e+00
          0.00000000e+00
          0.00000000e+00
          0.00000000e+00
          0.00000000e+00
          0.00000000e+00
          0.00000000e+00
          0.00000000e+00
          0.00000000e+00
          0.00000000e+00
          0.00000000e+00
          0.00000000e+00
          0.00000000e+00
          2.68384000e-01
          2.67605000e-01
          2.64177000e-01
          2.59924000e-01
          2.54345000e-01
          2.45067000e-01
          2.36992000e-01
          2.23311000e-01
          1.78328000e-01
          1.24509000e-01
          8.40124000e-03
          -2.08521000e-02
          0.00000000e+00
          0.00000000e+00
          0.00000000e+00
          0.00000000e+00
          0.00000000e+00
          0.00000000e+00
          0.00000000e+00
          0.00000000e+00
          0.00000000e+00
          0.00000000e+00
          0.00000000e+00
          0.00000000e+00
          0.00000000e+00
          0.00000000e+00
          0.00000000e+00
          0.00000000e+00
          0.00000000e+00
          0.00000000e+00
          0.00000000e+00
          0.00000000e+00
          0.00000000e+00
          0.00000000e+00
          0.00000000e+00
          0.00000000e+00
          0.00000000e+00
          0.00000000e+00
          0.00000000e+00
          0.00000000e+00
          0.00000000e+00
          0.00000000e+00
          0.00000000e+00
          0.00000000e+00
          0.00000000e+00
          0.00000000e+00
          0.00000000e+00
          0.00000000e+00
          0.00000000e+00
          0.00000000e+00
          0.00000000e+00
          2.68896000e-01
          2.68109000e-01
          2.64648000e-01
          2.60358000e-01
          2.54732000e-01
          2.45380000e-01
          2.37247000e-01
          2.23497000e-01
          1.78411000e-01
          1.24541000e-01
          8.40563000e-03
          -2.08521000e-02
          0.00000000e+00
          0.00000000e+00
          0.00000000e+00
          0.00000000e+00
          0.00000000e+00
          0.00000000e+00
          0.00000000e+00
          0.00000000e+00
          0.00000000e+00
          0.00000000e+00
          0.00000000e+00
          0.00000000e+00
          0.00000000e+00
          0.00000000e+00
          0.00000000e+00
          0.00000000e+00
          0.00000000e+00
          0.00000000e+00
          0.00000000e+00
          0.00000000e+00
          0.00000000e+00
          0.00000000e+00
          0.00000000e+00
          0.00000000e+00
          0.00000000e+00
          0.00000000e+00
          0.00000000e+00
          0.00000000e+00
          0.00000000e+00
          0.00000000e+00
          0.00000000e+00
          0.00000000e+00
          0.00000000e+00
          0.00000000e+00
          0.00000000e+00
          0.00000000e+00
          0.00000000e+00
          0.00000000e+00
          0.00000000e+00
          2.69496000e-01
          2.68700000e-01
          2.65201000e-01
          2.60866000e-01
          2.55185000e-01
          2.45747000e-01
          2.37546000e-01
          2.23716000e-01
          1.78510000e-01
          1.24578000e-01
          8.41080000e-03
          -2.08521000e-02
          0.00000000e+00
          0.00000000e+00
          0.00000000e+00
          0.00000000e+00
          0.00000000e+00
          0.00000000e+00
          0.00000000e+00
          0.00000000e+00
          0.00000000e+00
          0.00000000e+00
          0.00000000e+00
          0.00000000e+00
          0.00000000e+00
          0.00000000e+00
          0.00000000e+00
          0.00000000e+00
          0.00000000e+00
          0.00000000e+00
          0.00000000e+00
          0.00000000e+00
          0.00000000e+00
          0.00000000e+00
          0.00000000e+00
          0.00000000e+00
          0.00000000e+00
          0.00000000e+00
          0.00000000e+00
          0.00000000e+00
          0.00000000e+00
          0.00000000e+00
          0.00000000e+00
          0.00000000e+00
          0.00000000e+00
          0.00000000e+00
          0.00000000e+00
          0.00000000e+00
          0.00000000e+00
          0.00000000e+00
          0.00000000e+00
          2.70182000e-01
          2.69377000e-01
          2.65834000e-01
          2.61448000e-01
          2.55703000e-01
          2.46169000e-01
          2.37890000e-01
          2.23967000e-01
          1.78623000e-01
          1.24621000e-01
          8.41673000e-03
          -2.08521000e-02
          0.00000000e+00
          0.00000000e+00
          0.00000000e+00
          0.00000000e+00
          0.00000000e+00
          0.00000000e+00
          0.00000000e+00
          0.00000000e+00
          0.00000000e+00
          0.00000000e+00
          0.00000000e+00
          0.00000000e+00
          0.00000000e+00
          0.00000000e+00
          0.00000000e+00
          0.00000000e+00
          0.00000000e+00
          0.00000000e+00
          0.00000000e+00
          0.00000000e+00
          0.00000000e+00
          0.00000000e+00
          0.00000000e+00
          0.00000000e+00
          0.00000000e+00
          0.00000000e+00
          0.00000000e+00
          0.00000000e+00
          0.00000000e+00
          0.00000000e+00
          0.00000000e+00
          0.00000000e+00
          0.00000000e+00
          0.00000000e+00
          0.00000000e+00
          0.00000000e+00
          0.00000000e+00
          0.00000000e+00
          0.00000000e+00
          2.70953000e-01
          2.70136000e-01
          2.66544000e-01
          2.62101000e-01
          2.56286000e-01
          2.46642000e-01
          2.38276000e-01
          2.24250000e-01
          1.78750000e-01
          1.24669000e-01
          8.42341000e-03
          -2.08521000e-02
          0.00000000e+00
          0.00000000e+00
          0.00000000e+00
          0.00000000e+00
          0.00000000e+00
          0.00000000e+00
          0.00000000e+00
          0.00000000e+00
          0.00000000e+00
          0.00000000e+00
          0.00000000e+00
          0.00000000e+00
          0.00000000e+00
          0.00000000e+00
          0.00000000e+00
          0.00000000e+00
          0.00000000e+00
          0.00000000e+00
          0.00000000e+00
          0.00000000e+00
          0.00000000e+00
          0.00000000e+00
          0.00000000e+00
          0.00000000e+00
          0.00000000e+00
          0.00000000e+00
          0.00000000e+00
          0.00000000e+00
          0.00000000e+00
          0.00000000e+00
          0.00000000e+00
          0.00000000e+00
          0.00000000e+00
          0.00000000e+00
          0.00000000e+00
          0.00000000e+00
          0.00000000e+00
          0.00000000e+00
          0.00000000e+00
          2.71804000e-01
          2.70974000e-01
          2.67329000e-01
          2.62824000e-01
          2.56930000e-01
          2.47166000e-01
          2.38704000e-01
          2.24564000e-01
          1.78891000e-01
          1.24723000e-01
          8.43081000e-03
          -2.08521000e-02
          0.00000000e+00
          0.00000000e+00
          0.00000000e+00
          0.00000000e+00
          0.00000000e+00
          0.00000000e+00
          0.00000000e+00
          0.00000000e+00
          0.00000000e+00
          0.00000000e+00
          0.00000000e+00
          0.00000000e+00
          0.00000000e+00
          0.00000000e+00
          0.00000000e+00
          0.00000000e+00
          0.00000000e+00
          0.00000000e+00
          0.00000000e+00
          0.00000000e+00
          0.00000000e+00
          0.00000000e+00
          0.00000000e+00
          0.00000000e+00
          0.00000000e+00
          0.00000000e+00
          0.00000000e+00
          0.00000000e+00
          0.00000000e+00
          0.00000000e+00
          0.00000000e+00
          0.00000000e+00
          0.00000000e+00
          0.00000000e+00
          0.00000000e+00
          0.00000000e+00
          0.00000000e+00
          0.00000000e+00
          0.00000000e+00
          2.72733000e-01
          2.71890000e-01
          2.68187000e-01
          2.63613000e-01
          2.57635000e-01
          2.47739000e-01
          2.39172000e-01
          2.24908000e-01
          1.79046000e-01
          1.24781000e-01
          8.43894000e-03
          -2.08521000e-02
          0.00000000e+00
          0.00000000e+00
          0.00000000e+00
          0.00000000e+00
          0.00000000e+00
          0.00000000e+00
          0.00000000e+00
          0.00000000e+00
          0.00000000e+00
          0.00000000e+00
          0.00000000e+00
          0.00000000e+00
          0.00000000e+00
          0.00000000e+00
          0.00000000e+00
          0.00000000e+00
          0.00000000e+00
          0.00000000e+00
          0.00000000e+00
          0.00000000e+00
          0.00000000e+00
          0.00000000e+00
          0.00000000e+00
          0.00000000e+00
          0.00000000e+00
          0.00000000e+00
          0.00000000e+00
          0.00000000e+00
          0.00000000e+00
          0.00000000e+00
          0.00000000e+00
          0.00000000e+00
          0.00000000e+00
          0.00000000e+00
          0.00000000e+00
          0.00000000e+00
          0.00000000e+00
          0.00000000e+00
          0.00000000e+00
          2.73737000e-01
          2.72880000e-01
          2.69114000e-01
          2.64466000e-01
          2.58397000e-01
          2.48360000e-01
          2.39680000e-01
          2.25282000e-01
          1.79215000e-01
          1.24845000e-01
          8.44776000e-03
          -2.08521000e-02
          0.00000000e+00
          0.00000000e+00
          0.00000000e+00
          0.00000000e+00
          0.00000000e+00
          0.00000000e+00
          0.00000000e+00
          0.00000000e+00
          0.00000000e+00
          0.00000000e+00
          0.00000000e+00
          0.00000000e+00
          0.00000000e+00
          0.00000000e+00
          0.00000000e+00
          0.00000000e+00
          0.00000000e+00
          0.00000000e+00
          0.00000000e+00
          0.00000000e+00
          0.00000000e+00
          0.00000000e+00
          0.00000000e+00
          0.00000000e+00
          0.00000000e+00
          0.00000000e+00
          0.00000000e+00
          0.00000000e+00
          0.00000000e+00
          0.00000000e+00
          0.00000000e+00
          0.00000000e+00
          0.00000000e+00
          0.00000000e+00
          0.00000000e+00
          0.00000000e+00
          0.00000000e+00
          0.00000000e+00
          0.00000000e+00
          2.74813000e-01
          2.73940000e-01
          2.70107000e-01
          2.65381000e-01
          2.59215000e-01
          2.49027000e-01
          2.40226000e-01
          2.25684000e-01
          1.79396000e-01
          1.24913000e-01
          8.45725000e-03
          -2.08521000e-02
          0.00000000e+00
          0.00000000e+00
          0.00000000e+00
          0.00000000e+00
          0.00000000e+00
          0.00000000e+00
          0.00000000e+00
          0.00000000e+00
          0.00000000e+00
          0.00000000e+00
          0.00000000e+00
          0.00000000e+00
          0.00000000e+00
          0.00000000e+00
          0.00000000e+00
          0.00000000e+00
          0.00000000e+00
          0.00000000e+00
          0.00000000e+00
          0.00000000e+00
          0.00000000e+00
          0.00000000e+00
          0.00000000e+00
          0.00000000e+00
          0.00000000e+00
          0.00000000e+00
          0.00000000e+00
          0.00000000e+00
          0.00000000e+00
          0.00000000e+00
          0.00000000e+00
          0.00000000e+00
          0.00000000e+00
          0.00000000e+00
          0.00000000e+00
          0.00000000e+00
          0.00000000e+00
          0.00000000e+00
          0.00000000e+00
          2.75956000e-01
          2.75067000e-01
          2.71163000e-01
          2.66355000e-01
          2.60085000e-01
          2.49738000e-01
          2.40809000e-01
          2.26113000e-01
          1.79589000e-01
          1.24986000e-01
          8.46740000e-03
          -2.08521000e-02
          0.00000000e+00
          0.00000000e+00
          0.00000000e+00
          0.00000000e+00
          0.00000000e+00
          0.00000000e+00
          0.00000000e+00
          0.00000000e+00
          0.00000000e+00
          0.00000000e+00
          0.00000000e+00
          0.00000000e+00
          0.00000000e+00
          0.00000000e+00
          0.00000000e+00
          0.00000000e+00
          0.00000000e+00
          0.00000000e+00
          0.00000000e+00
          0.00000000e+00
          0.00000000e+00
          0.00000000e+00
          0.00000000e+00
          0.00000000e+00
          0.00000000e+00
          0.00000000e+00
          0.00000000e+00
          0.00000000e+00
          0.00000000e+00
          0.00000000e+00
          0.00000000e+00
          0.00000000e+00
          0.00000000e+00
          0.00000000e+00
          0.00000000e+00
          0.00000000e+00
          0.00000000e+00
          0.00000000e+00
          0.00000000e+00
          2.77164000e-01
          2.76257000e-01
          2.72280000e-01
          2.67384000e-01
          2.61006000e-01
          2.50490000e-01
          2.41427000e-01
          2.26569000e-01
          1.79795000e-01
          1.25064000e-01
          8.47817000e-03
          -2.08521000e-02
          0.00000000e+00
          0.00000000e+00
          0.00000000e+00
          0.00000000e+00
          0.00000000e+00
          0.00000000e+00
          0.00000000e+00
          0.00000000e+00
          0.00000000e+00
          0.00000000e+00
          0.00000000e+00
          0.00000000e+00
          0.00000000e+00
          0.00000000e+00
          0.00000000e+00
          0.00000000e+00
          0.00000000e+00
          0.00000000e+00
          0.00000000e+00
          0.00000000e+00
          0.00000000e+00
          0.00000000e+00
          0.00000000e+00
          0.00000000e+00
          0.00000000e+00
          0.00000000e+00
          0.00000000e+00
          0.00000000e+00
          0.00000000e+00
          0.00000000e+00
          0.00000000e+00
          0.00000000e+00
          0.00000000e+00
          0.00000000e+00
          0.00000000e+00
          0.00000000e+00
          0.00000000e+00
          0.00000000e+00
          0.00000000e+00
          2.78432000e-01
          2.77507000e-01
          2.73453000e-01
          2.68466000e-01
          2.61975000e-01
          2.51283000e-01
          2.42078000e-01
          2.27050000e-01
          1.80012000e-01
          1.25146000e-01
          8.48955000e-03
          -2.08521000e-02
          0.00000000e+00
          0.00000000e+00
          0.00000000e+00
          0.00000000e+00
          0.00000000e+00
          0.00000000e+00
          0.00000000e+00
          0.00000000e+00
          0.00000000e+00
          0.00000000e+00
          0.00000000e+00
          0.00000000e+00
          0.00000000e+00
          0.00000000e+00
          0.00000000e+00
          0.00000000e+00
          0.00000000e+00
          0.00000000e+00
          0.00000000e+00
          0.00000000e+00
          0.00000000e+00
          0.00000000e+00
          0.00000000e+00
          0.00000000e+00
          0.00000000e+00
          0.00000000e+00
          0.00000000e+00
          0.00000000e+00
          0.00000000e+00
          0.00000000e+00
          0.00000000e+00
          0.00000000e+00
          0.00000000e+00
          0.00000000e+00
          0.00000000e+00
          0.00000000e+00
          0.00000000e+00
          0.00000000e+00
          0.00000000e+00
          2.79757000e-01
          2.78814000e-01
          2.74679000e-01
          2.69598000e-01
          2.62989000e-01
          2.52114000e-01
          2.42762000e-01
          2.27556000e-01
          1.80240000e-01
          1.25232000e-01
          8.50150000e-03
          -2.08521000e-02
          0.00000000e+00
          0.00000000e+00
          0.00000000e+00
          0.00000000e+00
          0.00000000e+00
          0.00000000e+00
          0.00000000e+00
          0.00000000e+00
          0.00000000e+00
          0.00000000e+00
          0.00000000e+00
          0.00000000e+00
          0.00000000e+00
          0.00000000e+00
          0.00000000e+00
          0.00000000e+00
          0.00000000e+00
          0.00000000e+00
          0.00000000e+00
          0.00000000e+00
          0.00000000e+00
          0.00000000e+00
          0.00000000e+00
          0.00000000e+00
          0.00000000e+00
          0.00000000e+00
          0.00000000e+00
          0.00000000e+00
          0.00000000e+00
          0.00000000e+00
          0.00000000e+00
          0.00000000e+00
          0.00000000e+00
          0.00000000e+00
          0.00000000e+00
          0.00000000e+00
          0.00000000e+00
          0.00000000e+00
          0.00000000e+00
          2.81135000e-01
          2.80172000e-01
          2.75955000e-01
          2.70776000e-01
          2.64045000e-01
          2.52980000e-01
          2.43476000e-01
          2.28084000e-01
          1.80479000e-01
          1.25322000e-01
          8.51400000e-03
          -2.08521000e-02
          0.00000000e+00
          0.00000000e+00
          0.00000000e+00
          0.00000000e+00
          0.00000000e+00
          0.00000000e+00
          0.00000000e+00
          0.00000000e+00
          0.00000000e+00
          0.00000000e+00
          0.00000000e+00
          0.00000000e+00
          0.00000000e+00
          0.00000000e+00
          0.00000000e+00
          0.00000000e+00
          0.00000000e+00
          0.00000000e+00
          0.00000000e+00
          0.00000000e+00
          0.00000000e+00
          0.00000000e+00
          0.00000000e+00
          0.00000000e+00
          0.00000000e+00
          0.00000000e+00
          0.00000000e+00
          0.00000000e+00
          0.00000000e+00
          0.00000000e+00
          0.00000000e+00
          0.00000000e+00
          0.00000000e+00
          0.00000000e+00
          0.00000000e+00
          0.00000000e+00
          0.00000000e+00
          0.00000000e+00
          0.00000000e+00
          2.82561000e-01
          2.81579000e-01
          2.77277000e-01
          2.71997000e-01
          2.65141000e-01
          2.53881000e-01
          2.44219000e-01
          2.28635000e-01
          1.80728000e-01
          1.25416000e-01
          8.52702000e-03
          -2.08521000e-02
          0.00000000e+00
          0.00000000e+00
          0.00000000e+00
          0.00000000e+00
          0.00000000e+00
          0.00000000e+00
          0.00000000e+00
          0.00000000e+00
          0.00000000e+00
          0.00000000e+00
          0.00000000e+00
          0.00000000e+00
          0.00000000e+00
          0.00000000e+00
          0.00000000e+00
          0.00000000e+00
          0.00000000e+00
          0.00000000e+00
          0.00000000e+00
          0.00000000e+00
          0.00000000e+00
          0.00000000e+00
          0.00000000e+00
          0.00000000e+00
          0.00000000e+00
          0.00000000e+00
          0.00000000e+00
          0.00000000e+00
          0.00000000e+00
          0.00000000e+00
          0.00000000e+00
          0.00000000e+00
          0.00000000e+00
          0.00000000e+00
          0.00000000e+00
          0.00000000e+00
          0.00000000e+00
          0.00000000e+00
          0.00000000e+00
          2.84033000e-01
          2.83031000e-01
          2.78641000e-01
          2.73259000e-01
          2.66274000e-01
          2.54813000e-01
          2.44989000e-01
          2.29207000e-01
          1.80986000e-01
          1.25514000e-01
          8.54052000e-03
          -2.08521000e-02
          0.00000000e+00
          0.00000000e+00
          0.00000000e+00
          0.00000000e+00
          0.00000000e+00
          0.00000000e+00
          0.00000000e+00
          0.00000000e+00
          0.00000000e+00
          0.00000000e+00
          0.00000000e+00
          0.00000000e+00
          0.00000000e+00
          0.00000000e+00
          0.00000000e+00
          0.00000000e+00
          0.00000000e+00
          0.00000000e+00
          0.00000000e+00
          0.00000000e+00
          0.00000000e+00
          0.00000000e+00
          0.00000000e+00
          0.00000000e+00
          0.00000000e+00
          0.00000000e+00
          0.00000000e+00
          0.00000000e+00
          0.00000000e+00
          0.00000000e+00
          0.00000000e+00
          0.00000000e+00
          0.00000000e+00
          0.00000000e+00
          0.00000000e+00
          0.00000000e+00
          0.00000000e+00
          0.00000000e+00
          0.00000000e+00
          2.85547000e-01
          2.84524000e-01
          2.80045000e-01
          2.74558000e-01
          2.67441000e-01
          2.55774000e-01
          2.45784000e-01
          2.29798000e-01
          1.81253000e-01
          1.25615000e-01
          8.55448000e-03
          -2.08521000e-02
          0.00000000e+00
          0.00000000e+00
          0.00000000e+00
          0.00000000e+00
          0.00000000e+00
          0.00000000e+00
          0.00000000e+00
          0.00000000e+00
          0.00000000e+00
          0.00000000e+00
          0.00000000e+00
          0.00000000e+00
          0.00000000e+00
          0.00000000e+00
          0.00000000e+00
          0.00000000e+00
          0.00000000e+00
          0.00000000e+00
          0.00000000e+00
          0.00000000e+00
          0.00000000e+00
          0.00000000e+00
          0.00000000e+00
          0.00000000e+00
          0.00000000e+00
          0.00000000e+00
          0.00000000e+00
          0.00000000e+00
          0.00000000e+00
          0.00000000e+00
          0.00000000e+00
          0.00000000e+00
          0.00000000e+00
          0.00000000e+00
          0.00000000e+00
          0.00000000e+00
          0.00000000e+00
          0.00000000e+00
          0.00000000e+00
          2.87098000e-01
          2.86054000e-01
          2.81485000e-01
          2.75891000e-01
          2.68640000e-01
          2.56763000e-01
          2.46603000e-01
          2.30407000e-01
          1.81528000e-01
          1.25718000e-01
          8.56886000e-03
          -2.08521000e-02
          0.00000000e+00
          0.00000000e+00
          0.00000000e+00
          0.00000000e+00
          0.00000000e+00
          0.00000000e+00
          0.00000000e+00
          0.00000000e+00
          0.00000000e+00
          0.00000000e+00
          0.00000000e+00
          0.00000000e+00
          0.00000000e+00
          0.00000000e+00